 Gaussian 16, Revision C.01,
 Gaussian 16:  ES64L-G16RevC.01  3-Jul-2019

 ---------------------------------------------------
 #P SP UHF/6-31+G Pop=(Full) scf=tight IOp(6/27=122)
 ---------------------------------------------------

 -----
 CH2_3
 -----
 Symbolic Z-matrix:
 Charge =  0 Multiplicity = 3

                         Standard orientation:
 ---------------------------------------------------------------------
 Center     Atomic      Atomic             Coordinates (Angstroms)
 Number     Number       Type             X           Y           Z
 ---------------------------------------------------------------------
      1          6           0        0.000000    0.000000    0.103184
      2          1           0       -0.000000    0.995222   -0.309552
      3          1           0       -0.000000   -0.995222   -0.309552
 ---------------------------------------------------------------------

 SCF Done:  E(UHF) =  -38.9137810643     A.U. after   12 cycles

 The electronic state is 3-B1.
 Alpha  occ. eigenvalues --  -11.27043  -0.95489  -0.62447  -0.44902  -0.41060
 Alpha virt. eigenvalues --    0.09691   0.11588   0.12837   0.13089   0.29289
 Alpha virt. eigenvalues --    0.36249   0.84295   0.84858   0.86739   0.99957
 Alpha virt. eigenvalues --    1.21852   1.34256
  Beta  occ. eigenvalues --  -11.22117  -0.77721  -0.58717
  Beta virt. eigenvalues --    0.06929   0.07722   0.10944   0.11932   0.22597
  Beta virt. eigenvalues --    0.24487   0.32468   0.40024   0.90242   0.95251
  Beta virt. eigenvalues --    0.99539   1.08370   1.24152   1.36257

 Mulliken charges and spin densities:
               1          2
     1  C   -0.329587   2.302178
     2  H    0.164793  -0.151089
     3  H    0.164793  -0.151089
 Sum of Mulliken charges =  -0.00000   2.00000

 Dipole moment (field-independent basis, Debye):
    X=             -0.0000    Y=             -0.0000    Z=             -0.6536  Tot=              0.6536
 Quadrupole moment (field-independent basis, Debye-Ang):
   XX=             -8.2704   YY=             -5.9799   ZZ=             -7.7980
   XY=              0.0000   XZ=              0.0000   YZ=             -0.0000

 Normal termination of Gaussian 16 at Sat Jul 13 20:15:51 2024.
